Generated using dynaphopy

8000 atoms

2 atom types


        0.0000000000        56.3095038318 xlo xhi
        0.0000000000        56.3095038318 ylo yhi
        0.0000000000        56.3095038318 zlo zhi
        0.0000000000         0.0000000000         0.0000000000 xy xz yz

Masses

1        22.9897692800 
2        35.4530000000 

Atoms

1 1         0.0000000000         0.0000000000         0.0000000000
2 1         5.6309503832         0.0000000000         0.0000000000
3 1        11.2619007664         0.0000000000         0.0000000000
4 1        16.8928511495         0.0000000000         0.0000000000
5 1        22.5238015327         0.0000000000         0.0000000000
6 1        28.1547519159         0.0000000000         0.0000000000
7 1        33.7857022991         0.0000000000         0.0000000000
8 1        39.4166526823         0.0000000000         0.0000000000
9 1        45.0476030654         0.0000000000         0.0000000000
10 1        50.6785534486         0.0000000000         0.0000000000
11 1         0.0000000000         5.6309503832         0.0000000000
12 1         5.6309503832         5.6309503832         0.0000000000
13 1        11.2619007664         5.6309503832         0.0000000000
14 1        16.8928511495         5.6309503832         0.0000000000
15 1        22.5238015327         5.6309503832         0.0000000000
16 1        28.1547519159         5.6309503832         0.0000000000
17 1        33.7857022991         5.6309503832         0.0000000000
18 1        39.4166526823         5.6309503832         0.0000000000
19 1        45.0476030654         5.6309503832         0.0000000000
20 1        50.6785534486         5.6309503832         0.0000000000
21 1         0.0000000000        11.2619007664         0.0000000000
22 1         5.6309503832        11.2619007664         0.0000000000
23 1        11.2619007664        11.2619007664         0.0000000000
24 1        16.8928511495        11.2619007664         0.0000000000
25 1        22.5238015327        11.2619007664         0.0000000000
26 1        28.1547519159        11.2619007664         0.0000000000
27 1        33.7857022991        11.2619007664         0.0000000000
28 1        39.4166526823        11.2619007664         0.0000000000
29 1        45.0476030654        11.2619007664         0.0000000000
30 1        50.6785534486        11.2619007664         0.0000000000
31 1         0.0000000000        16.8928511495         0.0000000000
32 1         5.6309503832        16.8928511495         0.0000000000
33 1        11.2619007664        16.8928511495         0.0000000000
34 1        16.8928511495        16.8928511495         0.0000000000
35 1        22.5238015327        16.8928511495         0.0000000000
36 1        28.1547519159        16.8928511495         0.0000000000
37 1        33.7857022991        16.8928511495         0.0000000000
38 1        39.4166526823        16.8928511495         0.0000000000
39 1        45.0476030654        16.8928511495         0.0000000000
40 1        50.6785534486        16.8928511495         0.0000000000
41 1         0.0000000000        22.5238015327         0.0000000000
42 1         5.6309503832        22.5238015327         0.0000000000
43 1        11.2619007664        22.5238015327         0.0000000000
44 1        16.8928511495        22.5238015327         0.0000000000
45 1        22.5238015327        22.5238015327         0.0000000000
46 1        28.1547519159        22.5238015327         0.0000000000
47 1        33.7857022991        22.5238015327         0.0000000000
48 1        39.4166526823        22.5238015327         0.0000000000
49 1        45.0476030654        22.5238015327         0.0000000000
50 1        50.6785534486        22.5238015327         0.0000000000
51 1         0.0000000000        28.1547519159         0.0000000000
52 1         5.6309503832        28.1547519159         0.0000000000
53 1        11.2619007664        28.1547519159         0.0000000000
54 1        16.8928511495        28.1547519159         0.0000000000
55 1        22.5238015327        28.1547519159         0.0000000000
56 1        28.1547519159        28.1547519159         0.0000000000
57 1        33.7857022991        28.1547519159         0.0000000000
58 1        39.4166526823        28.1547519159         0.0000000000
59 1        45.0476030654        28.1547519159         0.0000000000
60 1        50.6785534486        28.1547519159         0.0000000000
61 1         0.0000000000        33.7857022991         0.0000000000
62 1         5.6309503832        33.7857022991         0.0000000000
63 1        11.2619007664        33.7857022991         0.0000000000
64 1        16.8928511495        33.7857022991         0.0000000000
65 1        22.5238015327        33.7857022991         0.0000000000
66 1        28.1547519159        33.7857022991         0.0000000000
67 1        33.7857022991        33.7857022991         0.0000000000
68 1        39.4166526823        33.7857022991         0.0000000000
69 1        45.0476030654        33.7857022991         0.0000000000
70 1        50.6785534486        33.7857022991         0.0000000000
71 1         0.0000000000        39.4166526823         0.0000000000
72 1         5.6309503832        39.4166526823         0.0000000000
73 1        11.2619007664        39.4166526823         0.0000000000
74 1        16.8928511495        39.4166526823         0.0000000000
75 1        22.5238015327        39.4166526823         0.0000000000
76 1        28.1547519159        39.4166526823         0.0000000000
77 1        33.7857022991        39.4166526823         0.0000000000
78 1        39.4166526823        39.4166526823         0.0000000000
79 1        45.0476030654        39.4166526823         0.0000000000
80 1        50.6785534486        39.4166526823         0.0000000000
81 1         0.0000000000        45.0476030654         0.0000000000
82 1         5.6309503832        45.0476030654         0.0000000000
83 1        11.2619007664        45.0476030654         0.0000000000
84 1        16.8928511495        45.0476030654         0.0000000000
85 1        22.5238015327        45.0476030654         0.0000000000
86 1        28.1547519159        45.0476030654         0.0000000000
87 1        33.7857022991        45.0476030654         0.0000000000
88 1        39.4166526823        45.0476030654         0.0000000000
89 1        45.0476030654        45.0476030654         0.0000000000
90 1        50.6785534486        45.0476030654         0.0000000000
91 1         0.0000000000        50.6785534486         0.0000000000
92 1         5.6309503832        50.6785534486         0.0000000000
93 1        11.2619007664        50.6785534486         0.0000000000
94 1        16.8928511495        50.6785534486         0.0000000000
95 1        22.5238015327        50.6785534486         0.0000000000
96 1        28.1547519159        50.6785534486         0.0000000000
97 1        33.7857022991        50.6785534486         0.0000000000
98 1        39.4166526823        50.6785534486         0.0000000000
99 1        45.0476030654        50.6785534486         0.0000000000
100 1        50.6785534486        50.6785534486         0.0000000000
101 1         0.0000000000         0.0000000000         5.6309503832
102 1         5.6309503832         0.0000000000         5.6309503832
103 1        11.2619007664         0.0000000000         5.6309503832
104 1        16.8928511495         0.0000000000         5.6309503832
105 1        22.5238015327         0.0000000000         5.6309503832
106 1        28.1547519159         0.0000000000         5.6309503832
107 1        33.7857022991         0.0000000000         5.6309503832
108 1        39.4166526823         0.0000000000         5.6309503832
109 1        45.0476030654         0.0000000000         5.6309503832
110 1        50.6785534486         0.0000000000         5.6309503832
111 1         0.0000000000         5.6309503832         5.6309503832
112 1         5.6309503832         5.6309503832         5.6309503832
113 1        11.2619007664         5.6309503832         5.6309503832
114 1        16.8928511495         5.6309503832         5.6309503832
115 1        22.5238015327         5.6309503832         5.6309503832
116 1        28.1547519159         5.6309503832         5.6309503832
117 1        33.7857022991         5.6309503832         5.6309503832
118 1        39.4166526823         5.6309503832         5.6309503832
119 1        45.0476030654         5.6309503832         5.6309503832
120 1        50.6785534486         5.6309503832         5.6309503832
121 1         0.0000000000        11.2619007664         5.6309503832
122 1         5.6309503832        11.2619007664         5.6309503832
123 1        11.2619007664        11.2619007664         5.6309503832
124 1        16.8928511495        11.2619007664         5.6309503832
125 1        22.5238015327        11.2619007664         5.6309503832
126 1        28.1547519159        11.2619007664         5.6309503832
127 1        33.7857022991        11.2619007664         5.6309503832
128 1        39.4166526823        11.2619007664         5.6309503832
129 1        45.0476030654        11.2619007664         5.6309503832
130 1        50.6785534486        11.2619007664         5.6309503832
131 1         0.0000000000        16.8928511495         5.6309503832
132 1         5.6309503832        16.8928511495         5.6309503832
133 1        11.2619007664        16.8928511495         5.6309503832
134 1        16.8928511495        16.8928511495         5.6309503832
135 1        22.5238015327        16.8928511495         5.6309503832
136 1        28.1547519159        16.8928511495         5.6309503832
137 1        33.7857022991        16.8928511495         5.6309503832
138 1        39.4166526823        16.8928511495         5.6309503832
139 1        45.0476030654        16.8928511495         5.6309503832
140 1        50.6785534486        16.8928511495         5.6309503832
141 1         0.0000000000        22.5238015327         5.6309503832
142 1         5.6309503832        22.5238015327         5.6309503832
143 1        11.2619007664        22.5238015327         5.6309503832
144 1        16.8928511495        22.5238015327         5.6309503832
145 1        22.5238015327        22.5238015327         5.6309503832
146 1        28.1547519159        22.5238015327         5.6309503832
147 1        33.7857022991        22.5238015327         5.6309503832
148 1        39.4166526823        22.5238015327         5.6309503832
149 1        45.0476030654        22.5238015327         5.6309503832
150 1        50.6785534486        22.5238015327         5.6309503832
151 1         0.0000000000        28.1547519159         5.6309503832
152 1         5.6309503832        28.1547519159         5.6309503832
153 1        11.2619007664        28.1547519159         5.6309503832
154 1        16.8928511495        28.1547519159         5.6309503832
155 1        22.5238015327        28.1547519159         5.6309503832
156 1        28.1547519159        28.1547519159         5.6309503832
157 1        33.7857022991        28.1547519159         5.6309503832
158 1        39.4166526823        28.1547519159         5.6309503832
159 1        45.0476030654        28.1547519159         5.6309503832
160 1        50.6785534486        28.1547519159         5.6309503832
161 1         0.0000000000        33.7857022991         5.6309503832
162 1         5.6309503832        33.7857022991         5.6309503832
163 1        11.2619007664        33.7857022991         5.6309503832
164 1        16.8928511495        33.7857022991         5.6309503832
165 1        22.5238015327        33.7857022991         5.6309503832
166 1        28.1547519159        33.7857022991         5.6309503832
167 1        33.7857022991        33.7857022991         5.6309503832
168 1        39.4166526823        33.7857022991         5.6309503832
169 1        45.0476030654        33.7857022991         5.6309503832
170 1        50.6785534486        33.7857022991         5.6309503832
171 1         0.0000000000        39.4166526823         5.6309503832
172 1         5.6309503832        39.4166526823         5.6309503832
173 1        11.2619007664        39.4166526823         5.6309503832
174 1        16.8928511495        39.4166526823         5.6309503832
175 1        22.5238015327        39.4166526823         5.6309503832
176 1        28.1547519159        39.4166526823         5.6309503832
177 1        33.7857022991        39.4166526823         5.6309503832
178 1        39.4166526823        39.4166526823         5.6309503832
179 1        45.0476030654        39.4166526823         5.6309503832
180 1        50.6785534486        39.4166526823         5.6309503832
181 1         0.0000000000        45.0476030654         5.6309503832
182 1         5.6309503832        45.0476030654         5.6309503832
183 1        11.2619007664        45.0476030654         5.6309503832
184 1        16.8928511495        45.0476030654         5.6309503832
185 1        22.5238015327        45.0476030654         5.6309503832
186 1        28.1547519159        45.0476030654         5.6309503832
187 1        33.7857022991        45.0476030654         5.6309503832
188 1        39.4166526823        45.0476030654         5.6309503832
189 1        45.0476030654        45.0476030654         5.6309503832
190 1        50.6785534486        45.0476030654         5.6309503832
191 1         0.0000000000        50.6785534486         5.6309503832
192 1         5.6309503832        50.6785534486         5.6309503832
193 1        11.2619007664        50.6785534486         5.6309503832
194 1        16.8928511495        50.6785534486         5.6309503832
195 1        22.5238015327        50.6785534486         5.6309503832
196 1        28.1547519159        50.6785534486         5.6309503832
197 1        33.7857022991        50.6785534486         5.6309503832
198 1        39.4166526823        50.6785534486         5.6309503832
199 1        45.0476030654        50.6785534486         5.6309503832
200 1        50.6785534486        50.6785534486         5.6309503832
201 1         0.0000000000         0.0000000000        11.2619007664
202 1         5.6309503832         0.0000000000        11.2619007664
203 1        11.2619007664         0.0000000000        11.2619007664
204 1        16.8928511495         0.0000000000        11.2619007664
205 1        22.5238015327         0.0000000000        11.2619007664
206 1        28.1547519159         0.0000000000        11.2619007664
207 1        33.7857022991         0.0000000000        11.2619007664
208 1        39.4166526823         0.0000000000        11.2619007664
209 1        45.0476030654         0.0000000000        11.2619007664
210 1        50.6785534486         0.0000000000        11.2619007664
211 1         0.0000000000         5.6309503832        11.2619007664
212 1         5.6309503832         5.6309503832        11.2619007664
213 1        11.2619007664         5.6309503832        11.2619007664
214 1        16.8928511495         5.6309503832        11.2619007664
215 1        22.5238015327         5.6309503832        11.2619007664
216 1        28.1547519159         5.6309503832        11.2619007664
217 1        33.7857022991         5.6309503832        11.2619007664
218 1        39.4166526823         5.6309503832        11.2619007664
219 1        45.0476030654         5.6309503832        11.2619007664
220 1        50.6785534486         5.6309503832        11.2619007664
221 1         0.0000000000        11.2619007664        11.2619007664
222 1         5.6309503832        11.2619007664        11.2619007664
223 1        11.2619007664        11.2619007664        11.2619007664
224 1        16.8928511495        11.2619007664        11.2619007664
225 1        22.5238015327        11.2619007664        11.2619007664
226 1        28.1547519159        11.2619007664        11.2619007664
227 1        33.7857022991        11.2619007664        11.2619007664
228 1        39.4166526823        11.2619007664        11.2619007664
229 1        45.0476030654        11.2619007664        11.2619007664
230 1        50.6785534486        11.2619007664        11.2619007664
231 1         0.0000000000        16.8928511495        11.2619007664
232 1         5.6309503832        16.8928511495        11.2619007664
233 1        11.2619007664        16.8928511495        11.2619007664
234 1        16.8928511495        16.8928511495        11.2619007664
235 1        22.5238015327        16.8928511495        11.2619007664
236 1        28.1547519159        16.8928511495        11.2619007664
237 1        33.7857022991        16.8928511495        11.2619007664
238 1        39.4166526823        16.8928511495        11.2619007664
239 1        45.0476030654        16.8928511495        11.2619007664
240 1        50.6785534486        16.8928511495        11.2619007664
241 1         0.0000000000        22.5238015327        11.2619007664
242 1         5.6309503832        22.5238015327        11.2619007664
243 1        11.2619007664        22.5238015327        11.2619007664
244 1        16.8928511495        22.5238015327        11.2619007664
245 1        22.5238015327        22.5238015327        11.2619007664
246 1        28.1547519159        22.5238015327        11.2619007664
247 1        33.7857022991        22.5238015327        11.2619007664
248 1        39.4166526823        22.5238015327        11.2619007664
249 1        45.0476030654        22.5238015327        11.2619007664
250 1        50.6785534486        22.5238015327        11.2619007664
251 1         0.0000000000        28.1547519159        11.2619007664
252 1         5.6309503832        28.1547519159        11.2619007664
253 1        11.2619007664        28.1547519159        11.2619007664
254 1        16.8928511495        28.1547519159        11.2619007664
255 1        22.5238015327        28.1547519159        11.2619007664
256 1        28.1547519159        28.1547519159        11.2619007664
257 1        33.7857022991        28.1547519159        11.2619007664
258 1        39.4166526823        28.1547519159        11.2619007664
259 1        45.0476030654        28.1547519159        11.2619007664
260 1        50.6785534486        28.1547519159        11.2619007664
261 1         0.0000000000        33.7857022991        11.2619007664
262 1         5.6309503832        33.7857022991        11.2619007664
263 1        11.2619007664        33.7857022991        11.2619007664
264 1        16.8928511495        33.7857022991        11.2619007664
265 1        22.5238015327        33.7857022991        11.2619007664
266 1        28.1547519159        33.7857022991        11.2619007664
267 1        33.7857022991        33.7857022991        11.2619007664
268 1        39.4166526823        33.7857022991        11.2619007664
269 1        45.0476030654        33.7857022991        11.2619007664
270 1        50.6785534486        33.7857022991        11.2619007664
271 1         0.0000000000        39.4166526823        11.2619007664
272 1         5.6309503832        39.4166526823        11.2619007664
273 1        11.2619007664        39.4166526823        11.2619007664
274 1        16.8928511495        39.4166526823        11.2619007664
275 1        22.5238015327        39.4166526823        11.2619007664
276 1        28.1547519159        39.4166526823        11.2619007664
277 1        33.7857022991        39.4166526823        11.2619007664
278 1        39.4166526823        39.4166526823        11.2619007664
279 1        45.0476030654        39.4166526823        11.2619007664
280 1        50.6785534486        39.4166526823        11.2619007664
281 1         0.0000000000        45.0476030654        11.2619007664
282 1         5.6309503832        45.0476030654        11.2619007664
283 1        11.2619007664        45.0476030654        11.2619007664
284 1        16.8928511495        45.0476030654        11.2619007664
285 1        22.5238015327        45.0476030654        11.2619007664
286 1        28.1547519159        45.0476030654        11.2619007664
287 1        33.7857022991        45.0476030654        11.2619007664
288 1        39.4166526823        45.0476030654        11.2619007664
289 1        45.0476030654        45.0476030654        11.2619007664
290 1        50.6785534486        45.0476030654        11.2619007664
291 1         0.0000000000        50.6785534486        11.2619007664
292 1         5.6309503832        50.6785534486        11.2619007664
293 1        11.2619007664        50.6785534486        11.2619007664
294 1        16.8928511495        50.6785534486        11.2619007664
295 1        22.5238015327        50.6785534486        11.2619007664
296 1        28.1547519159        50.6785534486        11.2619007664
297 1        33.7857022991        50.6785534486        11.2619007664
298 1        39.4166526823        50.6785534486        11.2619007664
299 1        45.0476030654        50.6785534486        11.2619007664
300 1        50.6785534486        50.6785534486        11.2619007664
301 1         0.0000000000         0.0000000000        16.8928511495
302 1         5.6309503832         0.0000000000        16.8928511495
303 1        11.2619007664         0.0000000000        16.8928511495
304 1        16.8928511495         0.0000000000        16.8928511495
305 1        22.5238015327         0.0000000000        16.8928511495
306 1        28.1547519159         0.0000000000        16.8928511495
307 1        33.7857022991         0.0000000000        16.8928511495
308 1        39.4166526823         0.0000000000        16.8928511495
309 1        45.0476030654         0.0000000000        16.8928511495
310 1        50.6785534486         0.0000000000        16.8928511495
311 1         0.0000000000         5.6309503832        16.8928511495
312 1         5.6309503832         5.6309503832        16.8928511495
313 1        11.2619007664         5.6309503832        16.8928511495
314 1        16.8928511495         5.6309503832        16.8928511495
315 1        22.5238015327         5.6309503832        16.8928511495
316 1        28.1547519159         5.6309503832        16.8928511495
317 1        33.7857022991         5.6309503832        16.8928511495
318 1        39.4166526823         5.6309503832        16.8928511495
319 1        45.0476030654         5.6309503832        16.8928511495
320 1        50.6785534486         5.6309503832        16.8928511495
321 1         0.0000000000        11.2619007664        16.8928511495
322 1         5.6309503832        11.2619007664        16.8928511495
323 1        11.2619007664        11.2619007664        16.8928511495
324 1        16.8928511495        11.2619007664        16.8928511495
325 1        22.5238015327        11.2619007664        16.8928511495
326 1        28.1547519159        11.2619007664        16.8928511495
327 1        33.7857022991        11.2619007664        16.8928511495
328 1        39.4166526823        11.2619007664        16.8928511495
329 1        45.0476030654        11.2619007664        16.8928511495
330 1        50.6785534486        11.2619007664        16.8928511495
331 1         0.0000000000        16.8928511495        16.8928511495
332 1         5.6309503832        16.8928511495        16.8928511495
333 1        11.2619007664        16.8928511495        16.8928511495
334 1        16.8928511495        16.8928511495        16.8928511495
335 1        22.5238015327        16.8928511495        16.8928511495
336 1        28.1547519159        16.8928511495        16.8928511495
337 1        33.7857022991        16.8928511495        16.8928511495
338 1        39.4166526823        16.8928511495        16.8928511495
339 1        45.0476030654        16.8928511495        16.8928511495
340 1        50.6785534486        16.8928511495        16.8928511495
341 1         0.0000000000        22.5238015327        16.8928511495
342 1         5.6309503832        22.5238015327        16.8928511495
343 1        11.2619007664        22.5238015327        16.8928511495
344 1        16.8928511495        22.5238015327        16.8928511495
345 1        22.5238015327        22.5238015327        16.8928511495
346 1        28.1547519159        22.5238015327        16.8928511495
347 1        33.7857022991        22.5238015327        16.8928511495
348 1        39.4166526823        22.5238015327        16.8928511495
349 1        45.0476030654        22.5238015327        16.8928511495
350 1        50.6785534486        22.5238015327        16.8928511495
351 1         0.0000000000        28.1547519159        16.8928511495
352 1         5.6309503832        28.1547519159        16.8928511495
353 1        11.2619007664        28.1547519159        16.8928511495
354 1        16.8928511495        28.1547519159        16.8928511495
355 1        22.5238015327        28.1547519159        16.8928511495
356 1        28.1547519159        28.1547519159        16.8928511495
357 1        33.7857022991        28.1547519159        16.8928511495
358 1        39.4166526823        28.1547519159        16.8928511495
359 1        45.0476030654        28.1547519159        16.8928511495
360 1        50.6785534486        28.1547519159        16.8928511495
361 1         0.0000000000        33.7857022991        16.8928511495
362 1         5.6309503832        33.7857022991        16.8928511495
363 1        11.2619007664        33.7857022991        16.8928511495
364 1        16.8928511495        33.7857022991        16.8928511495
365 1        22.5238015327        33.7857022991        16.8928511495
366 1        28.1547519159        33.7857022991        16.8928511495
367 1        33.7857022991        33.7857022991        16.8928511495
368 1        39.4166526823        33.7857022991        16.8928511495
369 1        45.0476030654        33.7857022991        16.8928511495
370 1        50.6785534486        33.7857022991        16.8928511495
371 1         0.0000000000        39.4166526823        16.8928511495
372 1         5.6309503832        39.4166526823        16.8928511495
373 1        11.2619007664        39.4166526823        16.8928511495
374 1        16.8928511495        39.4166526823        16.8928511495
375 1        22.5238015327        39.4166526823        16.8928511495
376 1        28.1547519159        39.4166526823        16.8928511495
377 1        33.7857022991        39.4166526823        16.8928511495
378 1        39.4166526823        39.4166526823        16.8928511495
379 1        45.0476030654        39.4166526823        16.8928511495
380 1        50.6785534486        39.4166526823        16.8928511495
381 1         0.0000000000        45.0476030654        16.8928511495
382 1         5.6309503832        45.0476030654        16.8928511495
383 1        11.2619007664        45.0476030654        16.8928511495
384 1        16.8928511495        45.0476030654        16.8928511495
385 1        22.5238015327        45.0476030654        16.8928511495
386 1        28.1547519159        45.0476030654        16.8928511495
387 1        33.7857022991        45.0476030654        16.8928511495
388 1        39.4166526823        45.0476030654        16.8928511495
389 1        45.0476030654        45.0476030654        16.8928511495
390 1        50.6785534486        45.0476030654        16.8928511495
391 1         0.0000000000        50.6785534486        16.8928511495
392 1         5.6309503832        50.6785534486        16.8928511495
393 1        11.2619007664        50.6785534486        16.8928511495
394 1        16.8928511495        50.6785534486        16.8928511495
395 1        22.5238015327        50.6785534486        16.8928511495
396 1        28.1547519159        50.6785534486        16.8928511495
397 1        33.7857022991        50.6785534486        16.8928511495
398 1        39.4166526823        50.6785534486        16.8928511495
399 1        45.0476030654        50.6785534486        16.8928511495
400 1        50.6785534486        50.6785534486        16.8928511495
401 1         0.0000000000         0.0000000000        22.5238015327
402 1         5.6309503832         0.0000000000        22.5238015327
403 1        11.2619007664         0.0000000000        22.5238015327
404 1        16.8928511495         0.0000000000        22.5238015327
405 1        22.5238015327         0.0000000000        22.5238015327
406 1        28.1547519159         0.0000000000        22.5238015327
407 1        33.7857022991         0.0000000000        22.5238015327
408 1        39.4166526823         0.0000000000        22.5238015327
409 1        45.0476030654         0.0000000000        22.5238015327
410 1        50.6785534486         0.0000000000        22.5238015327
411 1         0.0000000000         5.6309503832        22.5238015327
412 1         5.6309503832         5.6309503832        22.5238015327
413 1        11.2619007664         5.6309503832        22.5238015327
414 1        16.8928511495         5.6309503832        22.5238015327
415 1        22.5238015327         5.6309503832        22.5238015327
416 1        28.1547519159         5.6309503832        22.5238015327
417 1        33.7857022991         5.6309503832        22.5238015327
418 1        39.4166526823         5.6309503832        22.5238015327
419 1        45.0476030654         5.6309503832        22.5238015327
420 1        50.6785534486         5.6309503832        22.5238015327
421 1         0.0000000000        11.2619007664        22.5238015327
422 1         5.6309503832        11.2619007664        22.5238015327
423 1        11.2619007664        11.2619007664        22.5238015327
424 1        16.8928511495        11.2619007664        22.5238015327
425 1        22.5238015327        11.2619007664        22.5238015327
426 1        28.1547519159        11.2619007664        22.5238015327
427 1        33.7857022991        11.2619007664        22.5238015327
428 1        39.4166526823        11.2619007664        22.5238015327
429 1        45.0476030654        11.2619007664        22.5238015327
430 1        50.6785534486        11.2619007664        22.5238015327
431 1         0.0000000000        16.8928511495        22.5238015327